LAMMPS data file from restart file: timestep = 50000, procs = 256

19605 atoms
13294 bonds
7504 angles
1866 dihedrals
102 impropers

25 atom types
48 bond types
111 angle types
206 dihedral types
13 improper types

-2.9726675755914670e+01 2.9726675755914670e+01 xlo xhi
-2.7290062989036588e+01 2.7290062989036588e+01 ylo yhi
-2.9726675755914670e+01 2.9726675755914670e+01 zlo zhi

Masses

1 1.008
2 1.008
3 1.008
4 1.008
5 1.008
6 1.008
7 12.011
8 12.011
9 12.011
10 12.011
11 12.011
12 12.011
13 12.011
14 12.011
15 12.011
16 14.007
17 14.007
18 14.007
19 14.007
20 14.007
21 15.999
22 15.999
23 15.999
24 15.9994
25 32.06

Pair Coeffs

1 0.046 0.400014 0.046 0.400014
2 0.046 0.400014 0.046 0.400014
3 0.022 2.35197 0.022 2.35197
4 0.046 0.400014 0.046 0.400014
5 0.03 2.42004 0.03 2.42004
6 0.022 2.35197 0.022 2.35197
7 0.11 3.56359 0.11 3.56359
8 0.07 3.55005 0.07 3.55005
9 0.02 4.05359 0.01 3.38542
10 0.055 3.87541 0.01 3.38542
11 0.08 3.6705 0.01 3.38542
12 0.02 4.05359 0.01 3.38542
13 0.055 3.87541 0.01 3.38542
14 0.055 3.87541 0.01 3.38542
15 0.07 3.56359 0.07 3.56359
16 0.2 3.29632 0.0001 3.29632
17 0.2 3.29632 0.2 2.76179
18 0.2 3.29632 0.2 3.29632
19 0.2 3.29632 0.2 3.29632
20 0.2 3.29632 0.2 3.29632
21 0.12 3.02906 0.12 2.49452
22 0.12 3.02906 0.12 3.02906
23 0.1521 3.15378 0.1521 3.15378
24 0.1521 3.15057 0.1521 3.15057
25 0.38 3.51905 0.38 3.51905

Bond Coeffs

1 250 1.49
2 250 1.49
3 250 1.49
4 260 1.3
5 463 1.365
6 370 1.345
7 620 1.23
8 305 1.375
9 230 1.49
10 340 1.08
11 334.3 1.411
12 200 1.522
13 200 1.522
14 430 1.36
15 650 1.23
16 525 1.26
17 222.5 1.527
18 330 1.08
19 320 1.434
20 222.5 1.537
21 222.5 1.537
22 309 1.111
23 309 1.111
24 320 1.455
25 222.5 1.5
26 222.5 1.538
27 222.5 1.538
28 309 1.111
29 330 1.08
30 320 1.43
31 200 1.48
32 428 1.42
33 222.5 1.53
34 222.5 1.528
35 309 1.111
36 330 1.08
37 261 1.49
38 320 1.43
39 428 1.42
40 214 1.816
41 322 1.111
42 440 0.997
43 480 1
44 545 0.96
45 455 1
46 403 1.04
47 450 0.9572
48 173 2.029

Angle Coeffs

1 52 112.3 0 0
2 50 112 0 0
3 50 108.2 0 0
4 52 108 0 0
5 52 108 0 0
6 52 108 0 0
7 50 109.5 0 0
8 50 107 0 0
9 43.7 110 0 0
10 50 109.5 0 0
11 50 107 0 0
12 60 117 0 0
13 60 117 0 0
14 62.3 120 0 0
15 49 120 0 0
16 50 120 0 0
17 50 120 0 0
18 34 123 0 0
19 40 120 35 2.4162
20 45.8 122.3 0 0
21 30 120 22 2.1525
22 45.2 120 0 0
23 51.8 107.5 0 0
24 49.3 107.5 0 0
25 65 108 0 0
26 52 108 0 0
27 50 109.5 0 0
28 50 107 0 0
29 52 108 0 0
30 52 108 0 0
31 33 109.5 30 2.163
32 50 120 0 0
33 80 116.5 0 0
34 80 118 0 0
35 70 108.5 0 0
36 33.43 110.1 22.53 2.179
37 100 114.2 0 0
38 35 118 0 0
39 70 110.8 0 0
40 70 108.5 0 0
41 26.5 110.1 22.53 2.179
42 26.5 110.1 22.53 2.179
43 70 110.5 0 0
44 26.5 110.1 22.53 2.179
45 20 112.5 0 0
46 80 116.5 0 0
47 80 121 0 0
48 40 118 50 2.388
49 53.35 111 8 2.561
50 53.35 108.5 8 2.561
51 34.5 110.1 22.53 2.179
52 35 111 0 0
53 70 113.5 0 0
54 67.7 110 0 0
55 75.7 110.1 0 0
56 58.35 113.5 11.16 2.561
57 58.35 113.5 11.16 2.561
58 58.35 113.5 11.16 2.561
59 33.43 110.1 22.53 2.179
60 75.7 110.1 0 0
61 58 112.5 0 0
62 33.43 110.1 22.53 2.179
63 35 117 0 0
64 30 109.5 20 2.074
65 57.5 106 0 0
66 80 116.5 0 0
67 80 121 0 0
68 50 116.5 50 2.45
69 15 121 50 2.44
70 40 118 50 2.388
71 53.35 114 8 2.561
72 34.5 110.1 22.53 2.179
73 35 111 0 0
74 70 113.5 0 0
75 58.35 113.6 11.16 2.561
76 26.5 110.1 22.53 2.179
77 67.7 107.5 0 0
78 34.6 110.1 22.53 2.179
79 40.4 120 0 0
80 35 117 0 0
81 57.5 106 0 0
82 72.5 103.3 0 0
83 53.35 114 8 2.561
84 34.5 110.1 22.53 2.179
85 35 111 0 0
86 70 113.5 0 0
87 75.7 110.1 0 0
88 34.6 110.1 22.53 2.179
89 23 120 0 0
90 35.5 109 5.4 1.802
91 35.5 109 5.4 1.802
92 48 108 0 0
93 45.9 108.89 0 0
94 35.5 109 5.4 1.802
95 51.5 107.5 0 0
96 45.9 108.89 0 0
97 38 111 0 0
98 35.5 108.4 5.4 1.802
99 48 112 0 0
100 48 108 0 0
101 51.5 107.5 0 0
102 36 115 0 0
103 48 108 0 0
104 25 120 0 0
105 44 109.5 0 0
106 55 104.52 0 0
107 80 122.5 0 0
108 52 120 90 2.3642
109 80 122.5 0 0
110 75 122.5 50 2.37
111 100 124 70 2.225

Dihedral Coeffs

1 0.14 3 0 1
2 0.14 3 0 1
3 0.8 3 0 1
4 0.1 3 0 1
5 0.2 3 0 1
6 0.2 3 0 1
7 0.2 3 0 1
8 0.2 3 0 1
9 0.04 3 0 1
10 0.2 3 0 1
11 0.2 3 0 1
12 0.2 3 0 1
13 0.2 3 0 1
14 0.2 3 0 1
15 0.2 3 0 1
16 0.2 3 0 1
17 0.2 1 180 1
18 0 1 0 1
19 0.1 3 0 1
20 0.2 1 180 1
21 0 1 0 1
22 0.8 3 0 1
23 0.8 3 0 1
24 0 3 180 1
25 0 3 180 1
26 0 6 180 1
27 0 6 180 1
28 0.2 1 180 1
29 1.8 1 0 1
30 1.8 1 0 1
31 1.8 1 0 1
32 0 1 0 1
33 0 1 0 1
34 3.1 2 180 0.5
35 3.1 2 180 1
36 4.2 2 180 1
37 3.1 2 180 1
38 0.23 2 180 1
39 0 6 0 1
40 0.99 2 180 1
41 0.2 3 0 1
42 0.2 3 0 1
43 0.2 3 0 1
44 0.2 3 0 1
45 0 1 0 1
46 0.2 3 0 1
47 0.2 3 0 1
48 0.195 3 0 1
49 0.195 3 0 1
50 1.6 1 0 1
51 2.5 2 180 0
52 1.6 1 0 1
53 2.5 2 180 0
54 2.5 2 180 1
55 0.16 3 0 0
56 0.16 3 0 1
57 2.75 2 180 1
58 0.3 4 0 0
59 2.75 2 180 1
60 0.3 4 0 0
61 0.1 3 0 0
62 0.1 3 0 1
63 0.4 1 0 1
64 0.6 2 0 0
65 0.4 1 180 1
66 0.6 2 0 0
67 0.1 3 0 0
68 0.14 3 0 1
69 0.14 3 0 0
70 0.14 3 0 1
71 0.14 3 0 0
72 0.16 3 0 1
73 2.75 2 180 1
74 0.3 4 0 0
75 2.75 2 180 1
76 0.3 4 0 0
77 0.1 3 0 1
78 1.6 1 0 1
79 2.5 2 180 0
80 1.6 1 0 1
81 2.5 2 180 0
82 2.5 2 180 1
83 0 1 0 1
84 0 1 0 1
85 1.4 1 0 1
86 0.2 3 0 1
87 0.2 3 0 1
88 0.2 3 0 1
89 0 1 0 1
90 0.1 3 0 1
91 1.33 1 0 1
92 0.18 2 0 0
93 0.32 3 0 0
94 0.05 6 180 1
95 0.05 6 180 1
96 0.05 6 180 1
97 0.2 3 0 1
98 0.2 3 0 1
99 0.2 3 0 1
100 0.2 3 0 1
101 0.195 3 0 1
102 0.195 3 0 1
103 0.16 3 0 1
104 1.3 1 0 1
105 0.3 2 0 0
106 0.42 3 0 0
107 0.31 3 0 1
108 1.6 1 0 1
109 2.5 2 180 0
110 2.5 2 180 1
111 2.5 2 180 1
112 4.2 2 180 1
113 1.4 2 180 1
114 0 1 0 1
115 0 1 0 1
116 1.4 1 0 1
117 0.05 6 180 1
118 0.2 3 0 1
119 0.2 3 0 1
120 0.2 3 0 1
121 0 1 0 1
122 0.05 6 180 1
123 0.2 3 0 1
124 0.2 3 0 1
125 0.195 3 0 1
126 0.195 3 0 1
127 0 6 180 1
128 2.25 2 180 1
129 2.5 2 180 1
130 1 1 0 1
131 4.1 2 0 0
132 0.9 3 0 0
133 0 1 0 1
134 1.4 1 0 1
135 0.2 3 0 1
136 0.2 3 0 1
137 0.2 3 0 1
138 0.2 3 0 1
139 0.2 3 0 1
140 0.2 3 0 1
141 0 1 0 1
142 1.33 1 0 1
143 0.18 2 0 0
144 0.32 3 0 0
145 0.2 3 0 1
146 2.5 2 180 1
147 0 1 0 1
148 0 1 0 1
149 1.4 2 180 1
150 0.14 3 0 1
151 0.14 3 0 1
152 0.14 3 0 1
153 0.14 3 0 1
154 0.16 3 0 1
155 0.14 3 0 1
156 0.14 3 0 1
157 0.2 3 0 1
158 0.2 3 0 1
159 0.2 3 0 1
160 0.2 3 0 1
161 0.2 3 0 1
162 0 3 180 1
163 0 3 180 1
164 0.05 6 180 1
165 0.2 3 0 1
166 0.2 3 0 1
167 0.195 3 0 1
168 0.195 3 0 1
169 0.16 3 0 1
170 0 6 180 1
171 0.158 3 0 1
172 0.2 3 0 1
173 0.2 3 0 1
174 0.2 3 0 1
175 0.4 1 180 1
176 0.6 2 0 0
177 0.4 1 0 1
178 0.6 2 0 0
179 0 1 0 1
180 0 1 0 1
181 0 1 0 1
182 0.05 6 180 1
183 0.2 3 0 1
184 0.2 3 0 1
185 0.2 3 0 1
186 0.1 3 0 1
187 0 1 0 1
188 0 1 0 1
189 2.25 2 180 1
190 2.4 2 180 1
191 4.2 2 180 1
192 0.4 1 0 1
193 0.3 1 0 1
194 -0.3 4 0 0
195 -0.3 4 0 1
196 0.6 1 0 1
197 0.6 1 0 1
198 0.6 1 0 1
199 0 1 0 1
200 0.05 6 180 1
201 0.2 3 0 1
202 0.2 3 0 1
203 0.2 3 0 1
204 0 1 0 1
205 0 1 0 1
206 0.2 3 0 1

Improper Coeffs

1 120 0
2 120 0
3 120 0
4 120 0
5 40 0
6 96 0
7 45 0
8 96 0
9 45 0
10 0 0
11 20 0
12 20 0
13 4 0

Atoms

18000 5832 4 4.1699999999999998e-01 -2.3676028454312409e+01 -1.5275998906522137e+01 -2.9694475599189232e+01 1 1 0
19375 6291 24 -8.3399999999999996e-01 -2.4674659222374824e+01 -2.2600070698662837e+01 -2.7442203436608324e+01 0 1 0
19092 6196 4 4.1699999999999998e-01 -2.7792841535191904e+01 -2.5141031421499680e+01 -2.2830312055981349e+01 1 1 0
18867 6121 4 4.1699999999999998e-01 -2.8632080956686643e+01 -1.9330866574313337e+01 -2.7781615607453098e+01 1 0 0
1129 209 24 -8.3399999999999996e-01 -2.3693081416116438e+01 -2.0643179637014882e+01 -2.5826681721210527e+01 0 1 0
7732 2410 24 -8.3399999999999996e-01 -2.6350065951531228e+01 -2.2300764747727747e+01 -2.4958607225692006e+01 0 1 0
19363 6287 24 -8.3399999999999996e-01 -2.5077556746750524e+01 -2.3898002033889952e+01 -2.2560220450065113e+01 1 1 0
19478 6325 4 4.1699999999999998e-01 -2.3826808134486257e+01 -2.0440614815925148e+01 -2.2632180820536352e+01 1 1 0
3090 862 4 4.1699999999999998e-01 -2.4842475737813807e+01 -1.7890935508851459e+01 -2.8520351423967568e+01 0 0 0
1088 195 4 4.1699999999999998e-01 -2.9673826406050068e+01 -2.1483887535535626e+01 -2.5528078349078061e+01 1 1 0
19091 6196 4 4.1699999999999998e-01 -2.8218541899497740e+01 -2.6471258577975295e+01 -2.3414407460124853e+01 1 1 0
1483 327 24 -8.3399999999999996e-01 -2.5036912774779267e+01 -1.4784943522842648e+01 -2.7573379299277512e+01 0 1 0
3752 1083 4 4.1699999999999998e-01 -2.2598812549812866e+01 -1.8239691913168624e+01 -2.2670662774584919e+01 0 1 1
16048 5182 24 -8.3399999999999996e-01 -2.6372106350027270e+01 -2.4822437668927364e+01 -2.8277084286470586e+01 1 1 0
18866 6121 4 4.1699999999999998e-01 -2.8840924709081690e+01 -2.0787969594918376e+01 -2.8135349414625175e+01 1 0 0
2072 523 4 4.1699999999999998e-01 -2.4543026113654626e+01 -2.6112101679352477e+01 -2.3553880780145914e+01 0 1 0
1130 209 4 4.1699999999999998e-01 -2.4055455370476963e+01 -2.1340945977450303e+01 -2.6372610329174520e+01 0 1 0
19090 6196 24 -8.3399999999999996e-01 -2.7446019762093965e+01 -2.5933804443930143e+01 -2.3239526399945749e+01 1 1 0
2073 523 4 4.1699999999999998e-01 -2.5986541087075853e+01 -2.6309065302863115e+01 -2.3965417405569607e+01 0 1 0
1422 306 4 4.1699999999999998e-01 -2.7430213552764496e+01 -2.2854580739516692e+01 -2.6194501413345801e+01 0 1 0
19408 6302 24 -8.3399999999999996e-01 -2.2432942958875458e+01 -2.4387636315720275e+01 -2.2754099263436672e+01 0 1 0
1003 167 24 -8.3399999999999996e-01 -2.8481772363115827e+01 -2.3465041975200450e+01 -2.2472881619341283e+01 0 1 0
17397 5631 4 4.1699999999999998e-01 -2.8248192881802442e+01 -1.4860614196060549e+01 -2.8977650971886604e+01 1 0 0
863 120 4 4.1699999999999998e-01 -2.2655636443624740e+01 -1.9148675065039772e+01 -2.6114382269798224e+01 0 1 0
19376 6291 4 4.1699999999999998e-01 -2.4331541887570502e+01 -2.3368981115110579e+01 -2.6986925447142674e+01 0 1 0
3881 1126 4 4.1699999999999998e-01 -2.4020499114832230e+01 -2.2125224703548533e+01 -2.9343118214541622e+01 0 1 1
19364 6287 4 4.1699999999999998e-01 -2.5948610085794616e+01 -2.4029966063911509e+01 -2.2934496253163939e+01 1 1 0
6798 2098 4 4.1699999999999998e-01 -2.9480713206301001e+01 -1.4762089192957180e+01 -2.6622461294634235e+01 0 1 1
2028 508 4 4.1699999999999998e-01 -2.9392545382639366e+01 -1.6952848323146394e+01 -2.7964962532102245e+01 1 1 0
19477 6325 24 -8.3399999999999996e-01 -2.4122213892255914e+01 -2.1116446672496465e+01 -2.3242277143783458e+01 1 1 0
1131 209 4 4.1699999999999998e-01 -2.4114664951030942e+01 -2.0761027195404925e+01 -2.4975441400865680e+01 0 1 0
1089 195 4 4.1699999999999998e-01 -2.9175423044192275e+01 -2.0575043986343069e+01 -2.4424679044138465e+01 1 1 0
1484 327 4 4.1699999999999998e-01 -2.5726787067827274e+01 -1.4179027704647678e+01 -2.7302879269005999e+01 0 1 0
19409 6302 4 4.1699999999999998e-01 -2.3332472543991809e+01 -2.4071071935611901e+01 -2.2671248157690435e+01 0 1 0
18865 6121 24 -8.3399999999999996e-01 -2.8164749610228338e+01 -2.0113197590625081e+01 -2.8074515554505371e+01 1 0 0
1393 297 24 -8.3399999999999996e-01 -2.6636880559200076e+01 -1.7173790606579576e+01 -2.7514255268417909e+01 0 1 0
17395 5631 24 -8.3399999999999996e-01 -2.8937150570017454e+01 -1.4567312742395888e+01 -2.8381377245890778e+01 1 0 0
1420 306 24 -8.3399999999999996e-01 -2.8072078844848004e+01 -2.3201197168829058e+01 -2.6814256840101674e+01 0 1 0
16039 5179 24 -8.3399999999999996e-01 -2.7650769162264908e+01 -2.0176056360622820e+01 -2.3447827497802287e+01 1 1 0
2071 523 24 -8.3399999999999996e-01 -2.5094268724661582e+01 -2.6306314729930900e+01 -2.4311933334464477e+01 0 1 0
11952 3816 4 4.1699999999999998e-01 -2.8086995303349457e+01 -1.4138919258420664e+01 -2.3054879555284320e+01 1 0 0
19479 6325 4 4.1699999999999998e-01 -2.3962607194167806e+01 -2.1940866445000079e+01 -2.2782833431084821e+01 1 1 0
7734 2410 4 4.1699999999999998e-01 -2.6709183130100580e+01 -2.1723319763470965e+01 -2.4284943404358970e+01 0 1 0
659 52 4 4.1699999999999998e-01 -2.6912966229324020e+01 -2.0390345520424912e+01 -2.9206696890339241e+01 1 0 0
17861 5786 4 4.1699999999999998e-01 -2.4130017462568325e+01 -2.5230153806200203e+01 -2.5377255490095550e+01 1 1 0
18742 6080 24 -8.3399999999999996e-01 -2.5631414737294584e+01 -2.7125776775552399e+01 -2.6932662448649726e+01 0 1 0
7733 2410 4 4.1699999999999998e-01 -2.5581881919554107e+01 -2.2698695085689256e+01 -2.4549003125719707e+01 0 1 0
1421 306 4 4.1699999999999998e-01 -2.7594943439251267e+01 -2.3870538883447335e+01 -2.7304720151300042e+01 0 1 0
16049 5182 4 4.1699999999999998e-01 -2.6078794518975425e+01 -2.5619477876586810e+01 -2.7835580194488365e+01 1 1 0
19377 6291 4 4.1699999999999998e-01 -2.5614250844049923e+01 -2.2612645414902879e+01 -2.7259884370934635e+01 0 1 0
18743 6080 4 4.1699999999999998e-01 -2.5347179924050778e+01 -2.6851203215443689e+01 -2.6060853555108551e+01 0 1 0
11951 3816 4 4.1699999999999998e-01 -2.8683746088703522e+01 -1.4949757702232368e+01 -2.4185508607098690e+01 1 0 0
3088 862 24 -8.3399999999999996e-01 -2.4194995179413805e+01 -1.7460277828916507e+01 -2.9078503435650074e+01 0 0 0
11950 3816 24 -8.3399999999999996e-01 -2.8225915422751168e+01 -1.5038944361168273e+01 -2.3349645220134487e+01 1 0 0
3089 862 4 4.1699999999999998e-01 -2.3429817124611787e+01 -1.8034419827761131e+01 -2.9045423253610373e+01 0 0 0
1394 297 4 4.1699999999999998e-01 -2.7051987139090517e+01 -1.7111311909709169e+01 -2.8374495788224671e+01 0 1 0
1485 327 4 4.1699999999999998e-01 -2.5458384912693695e+01 -1.5644356785830203e+01 -2.7572441011655481e+01 0 1 0
2830 776 24 -8.3399999999999996e-01 -2.7220703070353732e+01 -1.7451756974054579e+01 -2.3078140811006158e+01 0 1 0
7112 2203 4 4.1699999999999998e-01 -2.3515258042896004e+01 -1.4119545815487049e+01 -2.6613018305349527e+01 0 0 1
16041 5179 4 4.1699999999999998e-01 -2.7543139453567907e+01 -1.9227642584700249e+01 -2.3376008642743329e+01 1 1 0
1395 297 4 4.1699999999999998e-01 -2.7235344008359863e+01 -1.7713385763228047e+01 -2.6997622552988492e+01 0 1 0
2831 776 4 4.1699999999999998e-01 -2.7480989621956923e+01 -1.6532759670457526e+01 -2.3140795840924092e+01 0 1 0
16050 5182 4 4.1699999999999998e-01 -2.6018957637092839e+01 -2.4895422463639658e+01 -2.9163757837699929e+01 1 1 0
17860 5786 24 -8.3399999999999996e-01 -2.3618149702037520e+01 -2.4835265295645016e+01 -2.6083148736511127e+01 1 1 0
17862 5786 4 4.1699999999999998e-01 -2.2711610595807773e+01 -2.5066113237513182e+01 -2.5880351119469758e+01 1 1 0
15335 4944 4 4.1699999999999998e-01 -2.8614640422862269e+01 -2.7223652103763897e+01 -2.6692907276548802e+01 1 1 0
16040 5179 4 4.1699999999999998e-01 -2.7282653593251627e+01 -2.0521622053929871e+01 -2.2634620228570586e+01 1 1 0
5913 1803 4 4.1699999999999998e-01 -2.2623913834856335e+01 -2.5972315131835206e+01 -2.8293772901154004e+01 0 1 0
4097 1198 4 4.1699999999999998e-01 -2.9112873411907415e+01 -1.8029477291581944e+01 -2.4788480432663402e+01 0 1 0
1005 167 4 4.1699999999999998e-01 -2.9435412722955583e+01 -2.3431412218920268e+01 -2.2548180255072278e+01 0 1 0
3753 1083 4 4.1699999999999998e-01 -2.2623513264307810e+01 -1.6767481198703958e+01 -2.3022625875326444e+01 0 1 1
17396 5631 4 4.1699999999999998e-01 -2.9652020257303281e+01 -1.4294301686266552e+01 -2.8956405156994609e+01 1 0 0
2026 508 24 -8.3399999999999996e-01 -2.9641901505682334e+01 -1.7874531166670483e+01 -2.8032438831973824e+01 1 1 0
18803 6100 4 4.1699999999999998e-01 -2.2333170510887797e+01 -2.0070992746855307e+01 -2.8760634217398614e+01 0 1 0
3751 1083 24 -8.3399999999999996e-01 -2.2318171808475832e+01 -1.7616901893019516e+01 -2.3341188065247167e+01 0 1 1
2832 776 4 4.1699999999999998e-01 -2.6638933803373202e+01 -1.7485173585086727e+01 -2.2318760381688058e+01 0 1 0
17142 5546 4 4.1699999999999998e-01 -2.6571072212420841e+01 -2.1937655416024342e+01 -1.7137614005882792e+01 1 1 0
3997 1165 24 -8.3399999999999996e-01 -2.8312796154916008e+01 -1.6147586898553083e+01 -1.7826616930991182e+01 0 0 0
5171 1556 4 4.1699999999999998e-01 -2.9683354616053268e+01 -1.8709666961220087e+01 -1.9533711168462101e+01 0 0 0
18638 6045 4 4.1699999999999998e-01 -2.6673141676209124e+01 -2.3322143976683819e+01 -1.9017542123473110e+01 1 1 0
8650 2716 24 -8.3399999999999996e-01 -2.5132900365791922e+01 -2.4796659375904703e+01 -1.9960500140288488e+01 0 1 0
714 70 4 4.1699999999999998e-01 -2.8730334342701131e+01 -1.9683445151951570e+01 -1.6160097195919594e+01 0 0 0
15552 5016 4 4.1699999999999998e-01 -2.8710593578237646e+01 -2.0703919868105171e+01 -2.0581843886282172e+01 1 0 0
18140 5879 4 4.1699999999999998e-01 -2.6395918736019350e+01 -1.8028785284809960e+01 -1.6450484775375561e+01 0 0 0
17140 5546 24 -8.3399999999999996e-01 -2.6469729498414786e+01 -2.1648081395958599e+01 -1.6230912658403085e+01 1 1 0
14139 4545 4 4.1699999999999998e-01 -2.3285050608099787e+01 -2.1171021936204291e+01 -2.0002995806082136e+01 1 1 0
15551 5016 4 4.1699999999999998e-01 -2.7593112772958630e+01 -2.1580168423411639e+01 -2.0057136683102247e+01 1 0 0
18639 6045 4 4.1699999999999998e-01 -2.5752425882027470e+01 -2.2316666287578734e+01 -1.9675713522492661e+01 1 1 0
5885 1794 4 4.1699999999999998e-01 -2.5553042248912320e+01 -1.8414087808717994e+01 -1.9895497119571012e+01 0 1 0
6656 2051 4 4.1699999999999998e-01 -2.3522603482047554e+01 -1.7386762911273891e+01 -1.8527923373929877e+01 0 1 0
3207 901 4 4.1699999999999998e-01 -2.3800639723850480e+01 -1.5064940963225677e+01 -1.6743266869063685e+01 0 0 0
19558 6352 24 -8.3399999999999996e-01 -2.2610808111928424e+01 -2.3719013057603679e+01 -1.8567448805777843e+01 0 1 0
1010 169 4 4.1699999999999998e-01 -2.5673998929918874e+01 -2.5137452892370117e+01 -1.5700245638627148e+01 0 1 0
1234 244 24 -8.3399999999999996e-01 -2.7901574840538988e+01 -2.4939024379040458e+01 -1.9181409206037983e+01 1 1 0
5886 1794 4 4.1699999999999998e-01 -2.6836723986308360e+01 -1.9071424205453905e+01 -2.0355891087327759e+01 0 1 0
13230 4242 4 4.1699999999999998e-01 -2.3242232207522299e+01 -1.9248706339710587e+01 -2.0538005893372041e+01 1 1 0
713 70 4 4.1699999999999998e-01 -2.8896464075731700e+01 -1.8836814655231915e+01 -1.7404086849307507e+01 0 0 0
1975 491 24 -8.3399999999999996e-01 -2.3727111549351513e+01 -2.6961740362819878e+01 -1.7884775045723071e+01 0 1 0
18139 5879 24 -8.3399999999999996e-01 -2.5640683937325257e+01 -1.7719918196645150e+01 -1.5950032676039182e+01 0 0 0
3999 1165 4 4.1699999999999998e-01 -2.7850146881026852e+01 -1.5328620168809280e+01 -1.8004042755811884e+01 0 0 0
18931 6143 24 -8.3399999999999996e-01 -2.8679860809292848e+01 -2.4605871159045211e+01 -1.6335733311511888e+01 1 0 0
5172 1556 4 4.1699999999999998e-01 -2.8669438141034210e+01 -1.7917533424345269e+01 -2.0331451981755873e+01 0 0 0
6657 2051 4 4.1699999999999998e-01 -2.4703669921141724e+01 -1.6443120179719450e+01 -1.8608626512652386e+01 0 1 0
712 70 24 -8.3399999999999996e-01 -2.8314004317476773e+01 -1.8979966946766819e+01 -1.6658111759677450e+01 0 0 0
6059 1852 4 4.1699999999999998e-01 -2.2324252593474011e+01 -1.7715073909505641e+01 -1.5855583987096701e+01 0 0 0
15550 5016 24 -8.3399999999999996e-01 -2.8047025425668622e+01 -2.1333857333589496e+01 -2.0863067777650368e+01 1 0 0
5146 1548 24 -8.3399999999999996e-01 -2.5484606666884879e+01 -1.4343018994824462e+01 -2.1342844730315871e+01 0 0 1
4929 1475 4 4.1699999999999998e-01 -2.2324984443305013e+01 -1.4658027483018158e+01 -2.1318658598097148e+01 0 0 0
6946 2148 24 -8.3399999999999996e-01 -2.4900602655075502e+01 -2.4165324161379900e+01 -1.6790618612927336e+01 0 1 0
6947 2148 4 4.1699999999999998e-01 -2.3955950998699535e+01 -2.4131485193231928e+01 -1.6941346758179147e+01 0 1 0
1235 244 4 4.1699999999999998e-01 -2.7985086265612804e+01 -2.4880887289773501e+01 -1.8229633649340865e+01 1 1 0
1004 167 4 4.1699999999999998e-01 -2.8260649386554700e+01 -2.2733861889924619e+01 -2.1896070467074541e+01 0 1 0
1236 244 4 4.1699999999999998e-01 -2.8741586673248484e+01 -2.5291817166371327e+01 -1.9474919284662345e+01 1 1 0
6948 2148 4 4.1699999999999998e-01 -2.5160787493810915e+01 -2.3249500055040155e+01 -1.6691619265459316e+01 0 1 0
3998 1165 4 4.1699999999999998e-01 -2.9115787020639480e+01 -1.6086551328241370e+01 -1.8344025003626758e+01 0 0 0
16222 5240 24 -8.3399999999999996e-01 -2.9381765990840208e+01 -1.5904949728937179e+01 -1.5030524330958572e+01 1 1 0
5884 1794 24 -8.3399999999999996e-01 -2.6000469880373664e+01 -1.8735354195949395e+01 -2.0678329928453888e+01 0 1 0
4927 1475 24 -8.3399999999999996e-01 -2.2818249777797057e+01 -1.5044806101877137e+01 -2.2042068857769728e+01 0 0 0
18741 6079 4 4.1699999999999998e-01 -2.5206898305872816e+01 -2.6896507819325091e+01 -2.0150549634007287e+01 1 1 0
1902 466 4 4.1699999999999998e-01 -2.9682921187812948e+01 -2.6169989121282857e+01 -1.5632122794617109e+01 0 1 0
5170 1556 24 -8.3399999999999996e-01 -2.8876901255497263e+01 -1.8805480410530564e+01 -2.0040350628540473e+01 0 0 0
14137 4545 24 -8.3399999999999996e-01 -2.3816769744637025e+01 -2.1908880151230417e+01 -2.0301443128166639e+01 1 1 0
1976 491 4 4.1699999999999998e-01 -2.2831390806485128e+01 -2.6625919989013312e+01 -1.7918536266442370e+01 0 1 0
13228 4242 24 -8.3399999999999996e-01 -2.3486613074894606e+01 -1.9129754649876940e+01 -2.1455807225929441e+01 1 1 0
8652 2716 4 4.1699999999999998e-01 -2.6010178863223555e+01 -2.4950689250357776e+01 -1.9609946246948606e+01 0 1 0
18933 6143 4 4.1699999999999998e-01 -2.9110664316631265e+01 -2.3819333201520543e+01 -1.6001073482687225e+01 1 0 0
18141 5879 4 4.1699999999999998e-01 -2.5341300132570247e+01 -1.6943023936969155e+01 -1.6422298950569068e+01 0 0 0
6655 2051 24 -8.3399999999999996e-01 -2.4366710490112691e+01 -1.7266058976841990e+01 -1.8962831067274269e+01 0 1 0
19365 6287 4 4.1699999999999998e-01 -2.5219294044688731e+01 -2.3906465147683985e+01 -2.1613610870135787e+01 1 1 0
19559 6352 4 4.1699999999999998e-01 -2.2489348566058716e+01 -2.3124668984212644e+01 -1.7827020882367975e+01 0 1 0
18932 6143 4 4.1699999999999998e-01 -2.7848380639144814e+01 -2.4643637398177457e+01 -1.5863033360405771e+01 1 0 0
18637 6045 24 -8.3399999999999996e-01 -2.6354413788004255e+01 -2.2422979581143117e+01 -1.8939141163611549e+01 1 1 0
19415 6304 4 4.1699999999999998e-01 -2.2648160240367222e+01 -2.1216797996974595e+01 -1.6255489144149674e+01 1 1 0
8651 2716 4 4.1699999999999998e-01 -2.4568576787334422e+01 -2.4761598322795972e+01 -1.9188139855227067e+01 0 1 0
19579 6359 24 -8.3399999999999996e-01 -2.3802389318522302e+01 -2.0473696569272981e+01 -1.4959858908884746e+01 0 0 0
14138 4545 4 4.1699999999999998e-01 -2.3546511344270982e+01 -2.2639789303752892e+01 -1.9745598720842327e+01 1 1 0
1977 491 4 4.1699999999999998e-01 -2.3995107740636016e+01 -2.6839407465635780e+01 -1.6974037168296597e+01 0 1 0
17141 5546 4 4.1699999999999998e-01 -2.6597868032522108e+01 -2.0700145983235050e+01 -1.6265980524378413e+01 1 1 0
4928 1475 4 4.1699999999999998e-01 -2.3732903753566323e+01 -1.4990034137308776e+01 -2.1765231474453202e+01 0 0 0
1143 213 4 4.1699999999999998e-01 -2.2604493260808738e+01 -2.7016818968069291e+01 -2.0702575617498027e+01 0 1 0
3206 901 4 4.1699999999999998e-01 -2.5040635921347516e+01 -1.4256040464182309e+01 -1.7059466095576635e+01 0 0 0
3205 901 24 -8.3399999999999996e-01 -2.4739046424738685e+01 -1.5152210092929973e+01 -1.6910622025752982e+01 0 0 0
5147 1548 4 4.1699999999999998e-01 -2.6371992034814465e+01 -1.4476292768043969e+01 -2.1676035501874786e+01 0 0 1
16224 5240 4 4.1699999999999998e-01 -2.9275749285303679e+01 -1.6389094107300174e+01 -1.5849423264084974e+01 1 1 0
16223 5240 4 4.1699999999999998e-01 -2.8585707183279556e+01 -1.5378355523068233e+01 -1.4958276840183979e+01 1 1 0
13229 4242 4 4.1699999999999998e-01 -2.4426339263135862e+01 -1.8949196689235286e+01 -2.1432476119156636e+01 1 1 0
1009 169 24 -8.3399999999999996e-01 -2.6159339197907084e+01 -2.5568674497762487e+01 -1.4996879765073263e+01 0 1 0
19581 6359 4 4.1699999999999998e-01 -2.4711499309346536e+01 -2.0757843889841944e+01 -1.4864937268320750e+01 0 0 0
7786 2428 24 -8.3399999999999996e-01 -2.9085878682696695e+01 -2.0802386460899385e+01 -8.1339977093497033e+00 0 1 0
18976 6158 24 -8.3399999999999996e-01 -2.3119507303002802e+01 -1.4950195526004206e+01 -1.0052243202204521e+01 0 0 0
12427 3975 24 -8.3399999999999996e-01 -2.9488479903034762e+01 -1.7521153806569444e+01 -1.0028349402549779e+01 1 1 0
12687 4061 4 4.1699999999999998e-01 -2.6490498282744234e+01 -1.4829313727851147e+01 -1.0223663058454500e+01 1 0 0
5863 1787 24 -8.3399999999999996e-01 -2.5616877020334552e+01 -1.8610357549774648e+01 -1.3461693175520217e+01 0 1 0
12685 4061 24 -8.3399999999999996e-01 -2.7057894579413556e+01 -1.4394407776010244e+01 -9.5871498531539903e+00 1 0 0
16229 5242 4 4.1699999999999998e-01 -2.6520473289614191e+01 -2.3761166238345329e+01 -1.4004277357106833e+01 1 1 0
1458 318 4 4.1699999999999998e-01 -2.2844289048446697e+01 -2.0425471426757717e+01 -8.3585229771145393e+00 1 0 0
4943 1480 4 4.1699999999999998e-01 -2.7516532872774537e+01 -2.2192919803583354e+01 -1.0854962194580850e+01 0 1 0
9915 3137 4 4.1699999999999998e-01 -2.9317301975272215e+01 -1.8462595698411288e+01 -1.3200294851144928e+01 1 0 0
786 94 4 4.1699999999999998e-01 -2.6562799442191508e+01 -2.6616586191449326e+01 -1.0324535489036986e+01 1 0 0
1011 169 4 4.1699999999999998e-01 -2.5686321206594325e+01 -2.6386958800816160e+01 -1.4845566940619980e+01 0 1 0
6795 2097 4 4.1699999999999998e-01 -2.2549136003231226e+01 -2.5392501867318650e+01 -1.4023349340340289e+01 0 1 0
18977 6158 4 4.1699999999999998e-01 -2.3475050326906192e+01 -1.4358079204212782e+01 -9.3895078096788680e+00 0 0 0
11702 3733 4 4.1699999999999998e-01 -2.9725424069516620e+01 -1.4203558645197358e+01 -8.1195279904683080e+00 1 0 0
3873 1123 4 4.1699999999999998e-01 -2.3769874835972509e+01 -2.2669437844026866e+01 -1.2587827151609890e+01 0 1 0
7787 2428 4 4.1699999999999998e-01 -2.8308554865342604e+01 -2.0284382316233273e+01 -8.3429718168380642e+00 0 1 0
1561 353 24 -8.3399999999999996e-01 -2.5344573635080611e+01 -1.4189080625514080e+01 -1.3311448346367005e+01 0 0 0
3872 1123 4 4.1699999999999998e-01 -2.3710050484689596e+01 -2.1233562889422164e+01 -1.3063827888701548e+01 0 1 0
824 107 4 4.1699999999999998e-01 -2.3112068341468383e+01 -1.5651067743194881e+01 -1.1625974319150920e+01 0 0 0
1773 423 4 4.1699999999999998e-01 -2.5773204101390579e+01 -2.3898904389714527e+01 -9.6446978882641865e+00 0 1 0
8635 2711 24 -8.3399999999999996e-01 -2.6116287174089976e+01 -1.6618761948991132e+01 -1.0991111121321701e+01 0 1 0
10635 3377 4 4.1699999999999998e-01 -2.6167222275983345e+01 -2.1942087345603646e+01 -8.0305324706055625e+00 0 1 0
17792 5763 4 4.1699999999999998e-01 -2.8506244356303064e+01 -2.5074667360012359e+01 -1.2771574200653022e+01 1 1 0
16230 5242 4 4.1699999999999998e-01 -2.6938557317410137e+01 -2.2388205467115423e+01 -1.4486021062366859e+01 1 1 0
12686 4061 4 4.1699999999999998e-01 -2.6981589912502347e+01 -1.4926160078707738e+01 -8.7949075405299002e+00 1 0 0
1771 423 24 -8.3399999999999996e-01 -2.6135104007869803e+01 -2.4534588567841297e+01 -1.0262083436952416e+01 0 1 0
5003 1500 4 4.1699999999999998e-01 -2.9697065820097247e+01 -2.3130587739334437e+01 -8.6132882277042864e+00 0 0 0
19504 6334 24 -8.3399999999999996e-01 -2.3036402835836181e+01 -2.4775673874119985e+01 -9.2524188730723296e+00 0 1 0
8636 2711 4 4.1699999999999998e-01 -2.5241105560251516e+01 -1.6772496642977320e+01 -1.1346995327038924e+01 0 1 0
16474 5324 24 -8.3399999999999996e-01 -2.6306981653896500e+01 -2.0567874680296690e+01 -1.1409801381060751e+01 0 0 0
16476 5324 4 4.1699999999999998e-01 -2.5492769591942071e+01 -2.0745745320261349e+01 -1.0939002558130568e+01 0 0 0
5004 1500 4 4.1699999999999998e-01 -2.9385848064138663e+01 -2.2970432064752970e+01 -1.0086171864994167e+01 0 0 0
8637 2711 4 4.1699999999999998e-01 -2.6662096330271250e+01 -1.6452541292701767e+01 -1.1759677212871823e+01 0 1 0
12429 3975 4 4.1699999999999998e-01 -2.9058533741198111e+01 -1.7164077577749438e+01 -1.0805442478704064e+01 1 1 0
823 107 24 -8.3399999999999996e-01 -2.3535779038579470e+01 -1.6013553831987885e+01 -1.2403987088369139e+01 0 0 0
11701 3733 24 -8.3399999999999996e-01 -2.9084891632612848e+01 -1.3883265382267222e+01 -7.4844207504958113e+00 1 0 0
1562 353 4 4.1699999999999998e-01 -2.5603564553338416e+01 -1.4174486135344223e+01 -1.4232828552295780e+01 0 0 0
16475 5324 4 4.1699999999999998e-01 -2.6093588449227894e+01 -1.9837847295257337e+01 -1.1990967586470227e+01 0 0 0
2930 809 4 4.1699999999999998e-01 -2.9555438845228124e+01 -2.0523157984620639e+01 -1.2183634590925738e+01 0 1 0
1457 318 4 4.1699999999999998e-01 -2.3796888696252690e+01 -1.9727254978210876e+01 -9.3055922663925834e+00 1 0 0
3939 1145 4 4.1699999999999998e-01 -2.4680665441195703e+01 -2.4989687845083470e+01 -8.0961032369400332e+00 0 1 0
15668 5055 4 4.1699999999999998e-01 -2.4110511407137349e+01 -2.5922367864824302e+01 -1.2468788912517796e+01 1 0 0
5864 1787 4 4.1699999999999998e-01 -2.4783416031065379e+01 -1.8198619863161206e+01 -1.3233558013458966e+01 0 1 0
17793 5763 4 4.1699999999999998e-01 -2.7546142691334779e+01 -2.5849172957494844e+01 -1.3649206478372603e+01 1 1 0
10634 3377 4 4.1699999999999998e-01 -2.4893585376458578e+01 -2.1775380478139681e+01 -8.8317505517816492e+00 0 1 0
17984 5827 4 4.1699999999999998e-01 -2.8638260615622155e+01 -1.3671893963793218e+01 -1.0984721101062718e+01 1 0 0
15667 5055 24 -8.3399999999999996e-01 -2.4263555221471094e+01 -2.4985822781211663e+01 -1.2343522442025673e+01 1 0 0
3755 1084 4 4.1699999999999998e-01 -2.5009718577497509e+01 -1.7220104103655206e+01 -9.3461601222979382e+00 0 1 0
2929 809 24 -8.3399999999999996e-01 -2.9104730541857908e+01 -2.0536130331111551e+01 -1.3027983174671533e+01 0 1 0
1772 423 4 4.1699999999999998e-01 -2.6917825141271024e+01 -2.4109682546855446e+01 -1.0612844467747498e+01 0 1 0
15669 5055 4 4.1699999999999998e-01 -2.4770333253047603e+01 -2.4931729318775457e+01 -1.1533287469771588e+01 1 0 0
1550 349 4 4.1699999999999998e-01 -2.9100002654992775e+01 -1.7051687384285401e+01 -8.0433689928764682e+00 0 0 0
9914 3137 4 4.1699999999999998e-01 -2.9387688274353344e+01 -1.7002746863580661e+01 -1.3594984199013776e+01 1 0 0